# vtk DataFile Version 1.0
Cube
ASCII

DATASET POLYDATA
POINTS 612 float
1.229522 0.000000 0.000000
1.229522 0.000000 30.000000
1.229522 27.583500 0.000000
1.229522 27.583500 30.000000
2.459044 0.708896 0.000000
2.459044 0.708896 30.000000
2.459044 2.129446 0.000000
2.459044 2.129446 30.000000
3.688566 2.841101 0.000000
3.688566 2.841101 30.000000
3.688566 4.258892 0.000000
3.688566 4.258892 30.000000
4.918088 4.970547 0.000000
4.918088 4.970547 30.000000
4.918088 6.391097 0.000000
4.918088 6.391097 30.000000
6.147610 7.099993 0.000000
6.147610 7.099993 30.000000
6.147610 8.520543 0.000000
6.147610 8.520543 30.000000
7.377132 9.229439 0.000000
7.377132 9.229439 30.000000
7.377132 10.649989 0.000000
7.377132 10.649989 30.000000
8.609624 11.358885 0.000000
8.609624 11.358885 30.000000
8.609624 12.779436 0.000000
8.609624 12.779436 30.000000
9.839146 13.491090 0.000000
9.839146 13.491090 30.000000
9.839146 14.908882 0.000000
9.839146 14.908882 30.000000
11.068668 15.620536 0.000000
11.068668 15.620536 30.000000
11.068668 17.041086 0.000000
11.068668 17.041086 30.000000
12.298190 17.749982 0.000000
12.298190 17.749982 30.000000
12.298190 19.170533 0.000000
12.298190 19.170533 30.000000
13.527712 19.879428 0.000000
13.527712 19.879428 30.000000
13.527712 21.299979 0.000000
13.527712 21.299979 30.000000
14.757234 22.008875 0.000000
14.757234 22.008875 30.000000
14.757234 23.429425 0.000000
14.757234 23.429425 30.000000
15.986756 24.141079 0.000000
15.986756 24.141079 30.000000
15.986756 25.558871 0.000000
15.986756 25.558871 30.000000
17.216278 26.270525 0.000000
17.216278 26.270525 30.000000
3.688566 0.000000 0.000000
3.688566 0.000000 30.000000
3.688566 27.583500 0.000000
3.688566 27.583500 30.000000
4.918088 0.708896 0.000000
4.918088 0.708896 30.000000
4.918088 2.129446 0.000000
4.918088 2.129446 30.000000
6.147610 2.841101 0.000000
6.147610 2.841101 30.000000
6.147610 4.258892 0.000000
6.147610 4.258892 30.000000
7.377132 4.970547 0.000000
7.377132 4.970547 30.000000
7.377132 6.391097 0.000000
7.377132 6.391097 30.000000
8.609624 7.099993 0.000000
8.609624 7.099993 30.000000
8.609624 8.520543 0.000000
8.609624 8.520543 30.000000
9.839146 9.229439 0.000000
9.839146 9.229439 30.000000
9.839146 10.649989 0.000000
9.839146 10.649989 30.000000
11.068668 11.358885 0.000000
11.068668 11.358885 30.000000
11.068668 12.779436 0.000000
11.068668 12.779436 30.000000
12.298190 13.491090 0.000000
12.298190 13.491090 30.000000
12.298190 14.908882 0.000000
12.298190 14.908882 30.000000
13.527712 15.620536 0.000000
13.527712 15.620536 30.000000
13.527712 17.041086 0.000000
13.527712 17.041086 30.000000
14.757234 17.749982 0.000000
14.757234 17.749982 30.000000
14.757234 19.170533 0.000000
14.757234 19.170533 30.000000
15.986756 19.879428 0.000000
15.986756 19.879428 30.000000
15.986756 21.299979 0.000000
15.986756 21.299979 30.000000
17.216278 22.008875 0.000000
17.216278 22.008875 30.000000
17.216278 23.429425 0.000000
17.216278 23.429425 30.000000
18.445800 24.141079 0.000000
18.445800 24.141079 30.000000
18.445800 25.558871 0.000000
18.445800 25.558871 30.000000
19.675323 26.270525 0.000000
19.675323 26.270525 30.000000
6.147610 0.000000 0.000000
6.147610 0.000000 30.000000
6.147610 27.583500 0.000000
6.147610 27.583500 30.000000
7.377132 0.708896 0.000000
7.377132 0.708896 30.000000
7.377132 2.129446 0.000000
7.377132 2.129446 30.000000
8.609624 2.841101 0.000000
8.609624 2.841101 30.000000
8.609624 4.258892 0.000000
8.609624 4.258892 30.000000
9.839146 4.970547 0.000000
9.839146 4.970547 30.000000
9.839146 6.391097 0.000000
9.839146 6.391097 30.000000
11.068668 7.099993 0.000000
11.068668 7.099993 30.000000
11.068668 8.520543 0.000000
11.068668 8.520543 30.000000
12.298190 9.229439 0.000000
12.298190 9.229439 30.000000
12.298190 10.649989 0.000000
12.298190 10.649989 30.000000
13.527712 11.358885 0.000000
13.527712 11.358885 30.000000
13.527712 12.779436 0.000000
13.527712 12.779436 30.000000
14.757234 13.491090 0.000000
14.757234 13.491090 30.000000
14.757234 14.908882 0.000000
14.757234 14.908882 30.000000
15.986756 15.620536 0.000000
15.986756 15.620536 30.000000
15.986756 17.041086 0.000000
15.986756 17.041086 30.000000
17.216278 17.749982 0.000000
17.216278 17.749982 30.000000
17.216278 19.170533 0.000000
17.216278 19.170533 30.000000
18.445800 19.879428 0.000000
18.445800 19.879428 30.000000
18.445800 21.299979 0.000000
18.445800 21.299979 30.000000
19.675323 22.008875 0.000000
19.675323 22.008875 30.000000
19.675323 23.429425 0.000000
19.675323 23.429425 30.000000
20.904845 24.141079 0.000000
20.904845 24.141079 30.000000
20.904845 25.558871 0.000000
20.904845 25.558871 30.000000
22.134367 26.270525 0.000000
22.134367 26.270525 30.000000
8.609624 0.000000 0.000000
8.609624 0.000000 30.000000
8.609624 27.583500 0.000000
8.609624 27.583500 30.000000
9.839146 0.708896 0.000000
9.839146 0.708896 30.000000
9.839146 2.129446 0.000000
9.839146 2.129446 30.000000
11.068668 2.841101 0.000000
11.068668 2.841101 30.000000
11.068668 4.258892 0.000000
11.068668 4.258892 30.000000
12.298190 4.970547 0.000000
12.298190 4.970547 30.000000
12.298190 6.391097 0.000000
12.298190 6.391097 30.000000
13.527712 7.099993 0.000000
13.527712 7.099993 30.000000
13.527712 8.520543 0.000000
13.527712 8.520543 30.000000
14.757234 9.229439 0.000000
14.757234 9.229439 30.000000
14.757234 10.649989 0.000000
14.757234 10.649989 30.000000
15.986756 11.358885 0.000000
15.986756 11.358885 30.000000
15.986756 12.779436 0.000000
15.986756 12.779436 30.000000
17.216278 13.491090 0.000000
17.216278 13.491090 30.000000
17.216278 14.908882 0.000000
17.216278 14.908882 30.000000
18.445800 15.620536 0.000000
18.445800 15.620536 30.000000
18.445800 17.041086 0.000000
18.445800 17.041086 30.000000
19.675323 17.749982 0.000000
19.675323 17.749982 30.000000
19.675323 19.170533 0.000000
19.675323 19.170533 30.000000
20.904845 19.879428 0.000000
20.904845 19.879428 30.000000
20.904845 21.299979 0.000000
20.904845 21.299979 30.000000
22.134367 22.008875 0.000000
22.134367 22.008875 30.000000
22.134367 23.429425 0.000000
22.134367 23.429425 30.000000
23.363889 24.141079 0.000000
23.363889 24.141079 30.000000
23.363889 25.558871 0.000000
23.363889 25.558871 30.000000
24.596381 26.270525 0.000000
24.596381 26.270525 30.000000
11.068668 0.000000 0.000000
11.068668 0.000000 30.000000
11.068668 27.583500 0.000000
11.068668 27.583500 30.000000
12.298190 0.708896 0.000000
12.298190 0.708896 30.000000
12.298190 2.129446 0.000000
12.298190 2.129446 30.000000
13.527712 2.841101 0.000000
13.527712 2.841101 30.000000
13.527712 4.258892 0.000000
13.527712 4.258892 30.000000
14.757234 4.970547 0.000000
14.757234 4.970547 30.000000
14.757234 6.391097 0.000000
14.757234 6.391097 30.000000
15.986756 7.099993 0.000000
15.986756 7.099993 30.000000
15.986756 8.520543 0.000000
15.986756 8.520543 30.000000
17.216278 9.229439 0.000000
17.216278 9.229439 30.000000
17.216278 10.649989 0.000000
17.216278 10.649989 30.000000
18.445800 11.358885 0.000000
18.445800 11.358885 30.000000
18.445800 12.779436 0.000000
18.445800 12.779436 30.000000
19.675323 13.491090 0.000000
19.675323 13.491090 30.000000
19.675323 14.908882 0.000000
19.675323 14.908882 30.000000
20.904845 15.620536 0.000000
20.904845 15.620536 30.000000
20.904845 17.041086 0.000000
20.904845 17.041086 30.000000
22.134367 17.749982 0.000000
22.134367 17.749982 30.000000
22.134367 19.170533 0.000000
22.134367 19.170533 30.000000
23.363889 19.879428 0.000000
23.363889 19.879428 30.000000
23.363889 21.299979 0.000000
23.363889 21.299979 30.000000
24.596381 22.008875 0.000000
24.596381 22.008875 30.000000
24.596381 23.429425 0.000000
24.596381 23.429425 30.000000
25.825903 24.141079 0.000000
25.825903 24.141079 30.000000
25.825903 25.558871 0.000000
25.825903 25.558871 30.000000
27.055425 26.270525 0.000000
27.055425 26.270525 30.000000
13.527712 0.000000 0.000000
13.527712 0.000000 30.000000
13.527712 27.583500 0.000000
13.527712 27.583500 30.000000
14.757234 0.708896 0.000000
14.757234 0.708896 30.000000
14.757234 2.129446 0.000000
14.757234 2.129446 30.000000
15.986756 2.841101 0.000000
15.986756 2.841101 30.000000
15.986756 4.258892 0.000000
15.986756 4.258892 30.000000
17.216278 4.970547 0.000000
17.216278 4.970547 30.000000
17.216278 6.391097 0.000000
17.216278 6.391097 30.000000
18.445800 7.099993 0.000000
18.445800 7.099993 30.000000
18.445800 8.520543 0.000000
18.445800 8.520543 30.000000
19.675323 9.229439 0.000000
19.675323 9.229439 30.000000
19.675323 10.649989 0.000000
19.675323 10.649989 30.000000
20.904845 11.358885 0.000000
20.904845 11.358885 30.000000
20.904845 12.779436 0.000000
20.904845 12.779436 30.000000
22.134367 13.491090 0.000000
22.134367 13.491090 30.000000
22.134367 14.908882 0.000000
22.134367 14.908882 30.000000
23.363889 15.620536 0.000000
23.363889 15.620536 30.000000
23.363889 17.041086 0.000000
23.363889 17.041086 30.000000
24.596381 17.749982 0.000000
24.596381 17.749982 30.000000
24.596381 19.170533 0.000000
24.596381 19.170533 30.000000
25.825903 19.879428 0.000000
25.825903 19.879428 30.000000
25.825903 21.299979 0.000000
25.825903 21.299979 30.000000
27.055425 22.008875 0.000000
27.055425 22.008875 30.000000
27.055425 23.429425 0.000000
27.055425 23.429425 30.000000
28.284947 24.141079 0.000000
28.284947 24.141079 30.000000
15.986756 0.000000 0.000000
15.986756 0.000000 30.000000
15.986756 27.583500 0.000000
15.986756 27.583500 30.000000
17.216278 0.708896 0.000000
17.216278 0.708896 30.000000
17.216278 2.129446 0.000000
17.216278 2.129446 30.000000
18.445800 2.841101 0.000000
18.445800 2.841101 30.000000
18.445800 4.258892 0.000000
18.445800 4.258892 30.000000
19.675323 4.970547 0.000000
19.675323 4.970547 30.000000
19.675323 6.391097 0.000000
19.675323 6.391097 30.000000
20.904845 7.099993 0.000000
20.904845 7.099993 30.000000
20.904845 8.520543 0.000000
20.904845 8.520543 30.000000
22.134367 9.229439 0.000000
22.134367 9.229439 30.000000
22.134367 10.649989 0.000000
22.134367 10.649989 30.000000
23.363889 11.358885 0.000000
23.363889 11.358885 30.000000
23.363889 12.779436 0.000000
23.363889 12.779436 30.000000
24.596381 13.491090 0.000000
24.596381 13.491090 30.000000
24.596381 14.908882 0.000000
24.596381 14.908882 30.000000
25.825903 15.620536 0.000000
25.825903 15.620536 30.000000
25.825903 17.041086 0.000000
25.825903 17.041086 30.000000
27.055425 17.749982 0.000000
27.055425 17.749982 30.000000
27.055425 19.170533 0.000000
27.055425 19.170533 30.000000
28.284947 19.879428 0.000000
28.284947 19.879428 30.000000
18.445800 0.000000 0.000000
18.445800 0.000000 30.000000
18.445800 27.583500 0.000000
18.445800 27.583500 30.000000
19.675323 0.708896 0.000000
19.675323 0.708896 30.000000
19.675323 2.129446 0.000000
19.675323 2.129446 30.000000
20.904845 2.841101 0.000000
20.904845 2.841101 30.000000
20.904845 4.258892 0.000000
20.904845 4.258892 30.000000
22.134367 4.970547 0.000000
22.134367 4.970547 30.000000
22.134367 6.391097 0.000000
22.134367 6.391097 30.000000
23.363889 7.099993 0.000000
23.363889 7.099993 30.000000
23.363889 8.520543 0.000000
23.363889 8.520543 30.000000
24.596381 9.229439 0.000000
24.596381 9.229439 30.000000
24.596381 10.649989 0.000000
24.596381 10.649989 30.000000
25.825903 11.358885 0.000000
25.825903 11.358885 30.000000
25.825903 12.779436 0.000000
25.825903 12.779436 30.000000
27.055425 13.491090 0.000000
27.055425 13.491090 30.000000
27.055425 14.908882 0.000000
27.055425 14.908882 30.000000
28.284947 15.620536 0.000000
28.284947 15.620536 30.000000
20.904845 0.000000 0.000000
20.904845 0.000000 30.000000
20.904845 27.583500 0.000000
20.904845 27.583500 30.000000
22.134367 0.708896 0.000000
22.134367 0.708896 30.000000
22.134367 2.129446 0.000000
22.134367 2.129446 30.000000
23.363889 2.841101 0.000000
23.363889 2.841101 30.000000
23.363889 4.258892 0.000000
23.363889 4.258892 30.000000
24.596381 4.970547 0.000000
24.596381 4.970547 30.000000
24.596381 6.391097 0.000000
24.596381 6.391097 30.000000
25.825903 7.099993 0.000000
25.825903 7.099993 30.000000
25.825903 8.520543 0.000000
25.825903 8.520543 30.000000
27.055425 9.229439 0.000000
27.055425 9.229439 30.000000
27.055425 10.649989 0.000000
27.055425 10.649989 30.000000
28.284947 11.358885 0.000000
28.284947 11.358885 30.000000
23.363889 0.000000 0.000000
23.363889 0.000000 30.000000
23.363889 27.583500 0.000000
23.363889 27.583500 30.000000
24.596381 0.708896 0.000000
24.596381 0.708896 30.000000
24.596381 2.129446 0.000000
24.596381 2.129446 30.000000
25.825903 2.841101 0.000000
25.825903 2.841101 30.000000
25.825903 4.258892 0.000000
25.825903 4.258892 30.000000
27.055425 4.970547 0.000000
27.055425 4.970547 30.000000
27.055425 6.391097 0.000000
27.055425 6.391097 30.000000
28.284947 7.099993 0.000000
28.284947 7.099993 30.000000
25.825903 0.000000 0.000000
25.825903 0.000000 30.000000
25.825903 27.583500 0.000000
25.825903 27.583500 30.000000
27.055425 0.708896 0.000000
27.055425 0.708896 30.000000
27.055425 2.129446 0.000000
27.055425 2.129446 30.000000
28.284947 2.841101 0.000000
28.284947 2.841101 30.000000
1.229522 4.258892 0.000000
1.229522 4.258892 30.000000
2.459044 4.970547 0.000000
2.459044 4.970547 30.000000
2.459044 6.391097 0.000000
2.459044 6.391097 30.000000
3.688566 7.099993 0.000000
3.688566 7.099993 30.000000
3.688566 8.520543 0.000000
3.688566 8.520543 30.000000
4.918088 9.229439 0.000000
4.918088 9.229439 30.000000
4.918088 10.649989 0.000000
4.918088 10.649989 30.000000
6.147610 11.358885 0.000000
6.147610 11.358885 30.000000
6.147610 12.779436 0.000000
6.147610 12.779436 30.000000
7.377132 13.491090 0.000000
7.377132 13.491090 30.000000
7.377132 14.908882 0.000000
7.377132 14.908882 30.000000
8.609624 15.620536 0.000000
8.609624 15.620536 30.000000
8.609624 17.041086 0.000000
8.609624 17.041086 30.000000
9.839146 17.749982 0.000000
9.839146 17.749982 30.000000
9.839146 19.170533 0.000000
9.839146 19.170533 30.000000
11.068668 19.879428 0.000000
11.068668 19.879428 30.000000
11.068668 21.299979 0.000000
11.068668 21.299979 30.000000
12.298190 22.008875 0.000000
12.298190 22.008875 30.000000
12.298190 23.429425 0.000000
12.298190 23.429425 30.000000
13.527712 24.141079 0.000000
13.527712 24.141079 30.000000
13.527712 25.558871 0.000000
13.527712 25.558871 30.000000
14.757234 26.270525 0.000000
14.757234 26.270525 30.000000
1.229522 8.520543 0.000000
1.229522 8.520543 30.000000
2.459044 9.229439 0.000000
2.459044 9.229439 30.000000
2.459044 10.649989 0.000000
2.459044 10.649989 30.000000
3.688566 11.358885 0.000000
3.688566 11.358885 30.000000
3.688566 12.779436 0.000000
3.688566 12.779436 30.000000
4.918088 13.491090 0.000000
4.918088 13.491090 30.000000
4.918088 14.908882 0.000000
4.918088 14.908882 30.000000
6.147610 15.620536 0.000000
6.147610 15.620536 30.000000
6.147610 17.041086 0.000000
6.147610 17.041086 30.000000
7.377132 17.749982 0.000000
7.377132 17.749982 30.000000
7.377132 19.170533 0.000000
7.377132 19.170533 30.000000
8.609624 19.879428 0.000000
8.609624 19.879428 30.000000
8.609624 21.299979 0.000000
8.609624 21.299979 30.000000
9.839146 22.008875 0.000000
9.839146 22.008875 30.000000
9.839146 23.429425 0.000000
9.839146 23.429425 30.000000
11.068668 24.141079 0.000000
11.068668 24.141079 30.000000
11.068668 25.558871 0.000000
11.068668 25.558871 30.000000
12.298190 26.270525 0.000000
12.298190 26.270525 30.000000
1.229522 12.779436 0.000000
1.229522 12.779436 30.000000
2.459044 13.491090 0.000000
2.459044 13.491090 30.000000
2.459044 14.908882 0.000000
2.459044 14.908882 30.000000
3.688566 15.620536 0.000000
3.688566 15.620536 30.000000
3.688566 17.041086 0.000000
3.688566 17.041086 30.000000
4.918088 17.749982 0.000000
4.918088 17.749982 30.000000
4.918088 19.170533 0.000000
4.918088 19.170533 30.000000
6.147610 19.879428 0.000000
6.147610 19.879428 30.000000
6.147610 21.299979 0.000000
6.147610 21.299979 30.000000
7.377132 22.008875 0.000000
7.377132 22.008875 30.000000
7.377132 23.429425 0.000000
7.377132 23.429425 30.000000
8.609624 24.141079 0.000000
8.609624 24.141079 30.000000
8.609624 25.558871 0.000000
8.609624 25.558871 30.000000
9.839146 26.270525 0.000000
9.839146 26.270525 30.000000
0.000000 14.908882 0.000000
0.000000 14.908882 30.000000
29.698600 14.908882 0.000000
29.698600 14.908882 30.000000
1.229522 15.620536 0.000000
1.229522 15.620536 30.000000
1.229522 17.041086 0.000000
1.229522 17.041086 30.000000
2.459044 17.749982 0.000000
2.459044 17.749982 30.000000
2.459044 19.170533 0.000000
2.459044 19.170533 30.000000
3.688566 19.879428 0.000000
3.688566 19.879428 30.000000
3.688566 21.299979 0.000000
3.688566 21.299979 30.000000
4.918088 22.008875 0.000000
4.918088 22.008875 30.000000
4.918088 23.429425 0.000000
4.918088 23.429425 30.000000
6.147610 24.141079 0.000000
6.147610 24.141079 30.000000
6.147610 25.558871 0.000000
6.147610 25.558871 30.000000
7.377132 26.270525 0.000000
7.377132 26.270525 30.000000
0.000000 19.170533 0.000000
0.000000 19.170533 30.000000
29.698600 19.170533 0.000000
29.698600 19.170533 30.000000
1.229522 19.879428 0.000000
1.229522 19.879428 30.000000
1.229522 21.299979 0.000000
1.229522 21.299979 30.000000
2.459044 22.008875 0.000000
2.459044 22.008875 30.000000
2.459044 23.429425 0.000000
2.459044 23.429425 30.000000
3.688566 24.141079 0.000000
3.688566 24.141079 30.000000
3.688566 25.558871 0.000000
3.688566 25.558871 30.000000
4.918088 26.270525 0.000000
4.918088 26.270525 30.000000
0.000000 23.429425 0.000000
0.000000 23.429425 30.000000
29.698600 23.429425 0.000000
29.698600 23.429425 30.000000
1.229522 24.141079 0.000000
1.229522 24.141079 30.000000
1.229522 25.558871 0.000000
1.229522 25.558871 30.000000
2.459044 26.270525 0.000000
2.459044 26.270525 30.000000
POINT_DATA 612
SCALARS my_scalars float
LOOKUP_TABLE default
1.7
1.7
1.7
1.7
1.7
1.7
1.7
1.7
1.7
1.7
1.7
1.7
1.7
1.7
1.7
1.7
1.7
1.7
1.7
1.7
1.7
1.7
1.7
1.7
1.7
1.7
1.7
1.7
1.7
1.7
1.7
1.7
1.7
1.7
1.7
1.7
1.7
1.7
1.7
1.7
1.7
1.7
1.7
1.7
1.7
1.7
1.7
1.7
1.7
1.7
1.7
1.7
1.7
1.7
1.7
1.7
1.7
1.7
1.7
1.7
1.7
1.7
1.7
1.7
1.7
1.7
1.7
1.7
1.7
1.7
1.7
1.7
1.7
1.7
1.7
1.7
1.7
1.7
1.7
1.7
1.7
1.7
1.7
1.7
1.7
1.7
1.7
1.7
1.7
1.7
1.7
1.7
1.7
1.7
1.7
1.7
1.7
1.7
1.7
1.7
1.7
1.7
1.7
1.7
1.7
1.7
1.7
1.7
1.7
1.7
1.7
1.7
1.7
1.7
1.7
1.7
1.7
1.7
1.7
1.7
1.7
1.7
1.7
1.7
1.7
1.7
1.7
1.7
1.7
1.7
1.7
1.7
1.7
1.7
1.7
1.7
1.7
1.7
1.7
1.7
1.7
1.7
1.7
1.7
1.7
1.7
1.7
1.7
1.7
1.7
1.7
1.7
1.7
1.7
1.7
1.7
1.7
1.7
1.7
1.7
1.7
1.7
1.7
1.7
1.7
1.7
1.7
1.7
1.7
1.7
1.7
1.7
1.7
1.7
1.7
1.7
1.7
1.7
1.7
1.7
1.7
1.7
1.7
1.7
1.7
1.7
1.7
1.7
1.7
1.7
1.7
1.7
1.7
1.7
1.7
1.7
1.7
1.7
1.7
1.7
1.7
1.7
1.7
1.7
1.7
1.7
1.7
1.7
1.7
1.7
1.7
1.7
1.7
1.7
1.7
1.7
1.7
1.7
1.7
1.7
1.7
1.7
1.7
1.7
1.7
1.7
1.7
1.7
1.7
1.7
1.7
1.7
1.7
1.7
1.7
1.7
1.7
1.7
1.7
1.7
1.7
1.7
1.7
1.7
1.7
1.7
1.7
1.7
1.7
1.7
1.7
1.7
1.7
1.7
1.7
1.7
1.7
1.7
1.7
1.7
1.7
1.7
1.7
1.7
1.7
1.7
1.7
1.7
1.7
1.7
1.7
1.7
1.7
1.7
1.7
1.7
1.7
1.7
1.7
1.7
1.7
1.7
1.7
1.7
1.7
1.7
1.7
1.7
1.7
1.7
1.7
1.7
1.7
1.7
1.7
1.7
1.7
1.7
1.7
1.7
1.7
1.7
1.7
1.7
1.7
1.7
1.7
1.7
1.7
1.7
1.7
1.7
1.7
1.7
1.7
1.7
1.7
1.7
1.7
1.7
1.7
1.7
1.7
1.7
1.7
1.7
1.7
1.7
1.7
1.7
1.7
1.7
1.7
1.7
1.7
1.7
1.7
1.7
1.7
1.7
1.7
1.7
1.7
1.7
1.7
1.7
1.7
1.7
1.7
1.7
1.7
1.7
1.7
1.7
1.7
1.7
1.7
1.7
1.7
1.7
1.7
1.7
1.7
1.7
1.7
1.7
1.7
1.7
1.7
1.7
1.7
1.7
1.7
1.7
1.7
1.7
1.7
1.7
1.7
1.7
1.7
1.7
1.7
1.7
1.7
1.7
1.7
1.7
1.7
1.7
1.7
1.7
1.7
1.7
1.7
1.7
1.7
1.7
1.7
1.7
1.7
1.7
1.7
1.7
1.7
1.7
1.7
1.7
1.7
1.7
1.7
1.7
1.7
1.7
1.7
1.7
1.7
1.7
1.7
1.7
1.7
1.7
1.7
1.7
1.7
1.7
1.7
1.7
1.7
1.7
1.7
1.7
1.7
1.7
1.7
1.7
1.7
1.7
1.7
1.7
1.7
1.7
1.7
1.7
1.7
1.7
1.7
1.7
1.7
1.7
1.7
1.7
1.7
1.7
1.7
1.7
1.7
1.7
1.7
1.7
1.7
1.7
1.7
1.7
1.7
1.7
1.7
1.7
1.7
1.7
1.7
1.7
1.7
1.7
1.7
1.7
1.7
1.7
1.7
1.7
1.7
1.7
1.7
1.7
1.7
1.7
1.7
1.7
1.7
1.7
1.7
1.7
1.7
1.7
1.7
1.7
1.7
1.7
1.7
1.7
1.7
1.7
1.7
1.7
1.7
1.7
1.7
1.7
1.7
1.7
1.7
1.7
1.7
1.7
1.7
1.7
1.7
1.7
1.7
1.7
1.7
1.7
1.7
1.7
1.7
1.7
1.7
1.7
1.7
1.7
1.7
1.7
1.7
1.7
1.7
1.7
1.7
1.7
1.7
1.7
1.7
1.7
1.7
1.7
1.7
1.7
1.7
1.7
1.7
1.7
1.7
1.7
1.7
1.7
1.7
1.7
1.7
1.7
1.7
1.7
1.7
1.7
1.7
1.7
1.7
1.7
1.7
1.7
1.7
1.7
1.7
1.7
1.7
1.7
1.7
1.7
1.7
1.7
1.7
1.7
1.7
1.7
1.7
1.7
1.7
1.7
1.7
1.7
1.7
1.7
1.7
1.7
1.7
1.7
1.7
1.7
1.7
1.7
1.7
1.7
1.7
1.7
1.7
1.7
1.7
1.7
1.7
1.7
1.7
1.7
1.7
1.7
VECTORS vectors float
0.3125 0 0
0.3125 0 0
0.3125 0 0
0.3125 0 0
0.3125 0 0
0.3125 0 0
0.3125 0 0
0.3125 0 0
0.3125 0 0
0.3125 0 0
0.3125 0 0
0.3125 0 0
0.3125 0 0
0.3125 0 0
0.3125 0 0
0.3125 0 0
0.3125 0 0
0.3125 0 0
0.3125 0 0
0.3125 0 0
0.3125 0 0
0.3125 0 0
0.3125 0 0
0.3125 0 0
0.3125 0 0
0.3125 0 0
0.3125 0 0
0.3125 0 0
0.3125 0 0
0.3125 0 0
0.3125 0 0
0.3125 0 0
0.3125 0 0
0.3125 0 0
0.3125 0 0
0.3125 0 0
0.3125 0 0
0.3125 0 0
0.3125 0 0
0.3125 0 0
0.3125 0 0
0.3125 0 0
0.3125 0 0
0.3125 0 0
0.3125 0 0
0.3125 0 0
0.3125 0 0
0.3125 0 0
0.3125 0 0
0.3125 0 0
0.3125 0 0
0.3125 0 0
0.3125 0 0
0.3125 0 0
0.3125 0 0
0.3125 0 0
0.3125 0 0
0.3125 0 0
0.3125 0 0
0.3125 0 0
0.3125 0 0
0.3125 0 0
0.3125 0 0
0.3125 0 0
0.3125 0 0
0.3125 0 0
0.3125 0 0
0.3125 0 0
0.3125 0 0
0.3125 0 0
0.3125 0 0
0.3125 0 0
0.3125 0 0
0.3125 0 0
0.3125 0 0
0.3125 0 0
0.3125 0 0
0.3125 0 0
0.3125 0 0
0.3125 0 0
0.3125 0 0
0.3125 0 0
0.3125 0 0
0.3125 0 0
0.3125 0 0
0.3125 0 0
0.3125 0 0
0.3125 0 0
0.3125 0 0
0.3125 0 0
0.3125 0 0
0.3125 0 0
0.3125 0 0
0.3125 0 0
0.3125 0 0
0.3125 0 0
0.3125 0 0
0.3125 0 0
0.3125 0 0
0.3125 0 0
0.3125 0 0
0.3125 0 0
0.3125 0 0
0.3125 0 0
0.3125 0 0
0.3125 0 0
0.3125 0 0
0.3125 0 0
0.3125 0 0
0.3125 0 0
0.3125 0 0
0.3125 0 0
0.3125 0 0
0.3125 0 0
0.3125 0 0
0.3125 0 0
0.3125 0 0
0.3125 0 0
0.3125 0 0
0.3125 0 0
0.3125 0 0
0.3125 0 0
0.3125 0 0
0.3125 0 0
0.3125 0 0
0.3125 0 0
0.3125 0 0
0.3125 0 0
0.3125 0 0
0.3125 0 0
0.3125 0 0
0.3125 0 0
0.3125 0 0
0.3125 0 0
0.3125 0 0
0.3125 0 0
0.3125 0 0
0.3125 0 0
0.3125 0 0
0.3125 0 0
0.3125 0 0
0.3125 0 0
0.3125 0 0
0.3125 0 0
0.3125 0 0
0.3125 0 0
0.3125 0 0
0.3125 0 0
0.3125 0 0
0.3125 0 0
0.3125 0 0
0.3125 0 0
0.3125 0 0
0.3125 0 0
0.3125 0 0
0.3125 0 0
0.3125 0 0
0.3125 0 0
0.3125 0 0
0.3125 0 0
0.3125 0 0
0.3125 0 0
0.3125 0 0
0.3125 0 0
0.3125 0 0
0.3125 0 0
0.3125 0 0
0.3125 0 0
0.3125 0 0
0.3125 0 0
0.3125 0 0
0.3125 0 0
0.3125 0 0
0.3125 0 0
0.3125 0 0
0.3125 0 0
0.3125 0 0
0.3125 0 0
0.3125 0 0
0.3125 0 0
0.3125 0 0
0.3125 0 0
0.3125 0 0
0.3125 0 0
0.3125 0 0
0.3125 0 0
0.3125 0 0
0.3125 0 0
0.3125 0 0
0.3125 0 0
0.3125 0 0
0.3125 0 0
0.3125 0 0
0.3125 0 0
0.3125 0 0
0.3125 0 0
0.3125 0 0
0.3125 0 0
0.3125 0 0
0.3125 0 0
0.3125 0 0
0.3125 0 0
0.3125 0 0
0.3125 0 0
0.3125 0 0
0.3125 0 0
0.3125 0 0
0.3125 0 0
0.3125 0 0
0.3125 0 0
0.3125 0 0
0.3125 0 0
0.3125 0 0
0.3125 0 0
0.3125 0 0
0.3125 0 0
0.3125 0 0
0.3125 0 0
0.3125 0 0
0.3125 0 0
0.3125 0 0
0.3125 0 0
0.3125 0 0
0.3125 0 0
0.3125 0 0
0.3125 0 0
0.3125 0 0
0.3125 0 0
0.3125 0 0
0.3125 0 0
0.3125 0 0
0.3125 0 0
0.3125 0 0
0.3125 0 0
0.3125 0 0
0.3125 0 0
0.3125 0 0
0.3125 0 0
0.3125 0 0
0.3125 0 0
0.3125 0 0
0.3125 0 0
0.3125 0 0
0.3125 0 0
0.3125 0 0
0.3125 0 0
0.3125 0 0
0.3125 0 0
0.3125 0 0
0.3125 0 0
0.3125 0 0
0.3125 0 0
0.3125 0 0
0.3125 0 0
0.3125 0 0
0.3125 0 0
0.3125 0 0
0.3125 0 0
0.3125 0 0
0.3125 0 0
0.3125 0 0
0.3125 0 0
0.3125 0 0
0.3125 0 0
0.3125 0 0
0.3125 0 0
0.3125 0 0
0.3125 0 0
0.3125 0 0
0.3125 0 0
0.3125 0 0
0.3125 0 0
0.3125 0 0
0.3125 0 0
0.3125 0 0
0.3125 0 0
0.3125 0 0
0.3125 0 0
0.3125 0 0
0.3125 0 0
0.3125 0 0
0.3125 0 0
0.3125 0 0
0.3125 0 0
0.3125 0 0
0.3125 0 0
0.3125 0 0
0.3125 0 0
0.3125 0 0
0.3125 0 0
0.3125 0 0
0.3125 0 0
0.3125 0 0
0.3125 0 0
0.3125 0 0
0.3125 0 0
0.3125 0 0
0.3125 0 0
0.3125 0 0
0.3125 0 0
0.3125 0 0
0.3125 0 0
0.3125 0 0
0.3125 0 0
0.3125 0 0
0.3125 0 0
0.3125 0 0
0.3125 0 0
0.3125 0 0
0.3125 0 0
0.3125 0 0
0.3125 0 0
0.3125 0 0
0.3125 0 0
0.3125 0 0
0.3125 0 0
0.3125 0 0
0.3125 0 0
0.3125 0 0
0.3125 0 0
0.3125 0 0
0.3125 0 0
0.3125 0 0
0.3125 0 0
0.3125 0 0
0.3125 0 0
0.3125 0 0
0.3125 0 0
0.3125 0 0
0.3125 0 0
0.3125 0 0
0.3125 0 0
0.3125 0 0
0.3125 0 0
0.3125 0 0
0.3125 0 0
0.3125 0 0
0.3125 0 0
0.3125 0 0
0.3125 0 0
0.3125 0 0
0.3125 0 0
0.3125 0 0
0.3125 0 0
0.3125 0 0
0.3125 0 0
0.3125 0 0
0.3125 0 0
0.3125 0 0
0.3125 0 0
0.3125 0 0
0.3125 0 0
0.3125 0 0
0.3125 0 0
0.3125 0 0
0.3125 0 0
0.3125 0 0
0.3125 0 0
0.3125 0 0
0.3125 0 0
0.3125 0 0
0.3125 0 0
0.3125 0 0
0.3125 0 0
0.3125 0 0
0.3125 0 0
0.3125 0 0
0.3125 0 0
0.3125 0 0
0.3125 0 0
0.3125 0 0
0.3125 0 0
0.3125 0 0
0.3125 0 0
0.3125 0 0
0.3125 0 0
0.3125 0 0
0.3125 0 0
0.3125 0 0
0.3125 0 0
0.3125 0 0
0.3125 0 0
0.3125 0 0
0.3125 0 0
0.3125 0 0
0.3125 0 0
0.3125 0 0
0.3125 0 0
0.3125 0 0
0.3125 0 0
0.3125 0 0
0.3125 0 0
0.3125 0 0
0.3125 0 0
0.3125 0 0
0.3125 0 0
0.3125 0 0
0.3125 0 0
0.3125 0 0
0.3125 0 0
0.3125 0 0
0.3125 0 0
0.3125 0 0
0.3125 0 0
0.3125 0 0
0.3125 0 0
0.3125 0 0
0.3125 0 0
0.3125 0 0
0.3125 0 0
0.3125 0 0
0.3125 0 0
0.3125 0 0
0.3125 0 0
0.3125 0 0
0.3125 0 0
0.3125 0 0
0.3125 0 0
0.3125 0 0
0.3125 0 0
0.3125 0 0
0.3125 0 0
0.3125 0 0
0.3125 0 0
0.3125 0 0
0.3125 0 0
0.3125 0 0
0.3125 0 0
0.3125 0 0
0.3125 0 0
0.3125 0 0
0.3125 0 0
0.3125 0 0
0.3125 0 0
0.3125 0 0
0.3125 0 0
0.3125 0 0
0.3125 0 0
0.3125 0 0
0.3125 0 0
0.3125 0 0
0.3125 0 0
0.3125 0 0
0.3125 0 0
0.3125 0 0
0.3125 0 0
0.3125 0 0
0.3125 0 0
0.3125 0 0
0.3125 0 0
0.3125 0 0
0.3125 0 0
0.3125 0 0
0.3125 0 0
0.3125 0 0
0.3125 0 0
0.3125 0 0
0.3125 0 0
0.3125 0 0
0.3125 0 0
0.3125 0 0
0.3125 0 0
0.3125 0 0
0.3125 0 0
0.3125 0 0
0.3125 0 0
0.3125 0 0
0.3125 0 0
0.3125 0 0
0.3125 0 0
0.3125 0 0
0.3125 0 0
0.3125 0 0
0.3125 0 0
0.3125 0 0
0.3125 0 0
0.3125 0 0
0.3125 0 0
0.3125 0 0
0.3125 0 0
0.3125 0 0
0.3125 0 0
0.3125 0 0
0.3125 0 0
0.3125 0 0
0.3125 0 0
0.3125 0 0
0.3125 0 0
0.3125 0 0
0.3125 0 0
0.3125 0 0
0.3125 0 0
0.3125 0 0
0.3125 0 0
0.3125 0 0
0.3125 0 0
0.3125 0 0
0.3125 0 0
0.3125 0 0
0.3125 0 0
0.3125 0 0
0.3125 0 0
0.3125 0 0
0.3125 0 0
0.3125 0 0
0.3125 0 0
0.3125 0 0
0.3125 0 0
0.3125 0 0
0.3125 0 0
0.3125 0 0
0.3125 0 0
0.3125 0 0
0.3125 0 0
0.3125 0 0
0.3125 0 0
0.3125 0 0
0.3125 0 0
0.3125 0 0
0.3125 0 0
0.3125 0 0
0.3125 0 0
0.3125 0 0
0.3125 0 0
0.3125 0 0
0.3125 0 0
0.3125 0 0
0.3125 0 0
0.3125 0 0
0.3125 0 0
0.3125 0 0
0.3125 0 0
0.3125 0 0
0.3125 0 0
0.3125 0 0
0.3125 0 0
0.3125 0 0
0.3125 0 0
0.3125 0 0
0.3125 0 0
0.3125 0 0
0.3125 0 0
0.3125 0 0
0.3125 0 0
0.3125 0 0
0.3125 0 0
0.3125 0 0
0.3125 0 0
0.3125 0 0
0.3125 0 0
0.3125 0 0
0.3125 0 0
0.3125 0 0
0.3125 0 0
0.3125 0 0
0.3125 0 0
0.3125 0 0
0.3125 0 0
0.3125 0 0
0.3125 0 0
0.3125 0 0
0.3125 0 0
0.3125 0 0
0.3125 0 0
0.3125 0 0
0.3125 0 0
0.3125 0 0
0.3125 0 0
0.3125 0 0
0.3125 0 0
0.3125 0 0
0.3125 0 0
0.3125 0 0
0.3125 0 0
0.3125 0 0
0.3125 0 0
0.3125 0 0
0.3125 0 0
0.3125 0 0
0.3125 0 0
0.3125 0 0
0.3125 0 0
0.3125 0 0
0.3125 0 0
0.3125 0 0
0.3125 0 0
0.3125 0 0
0.3125 0 0
0.3125 0 0
0.3125 0 0
0.3125 0 0
0.3125 0 0
0.3125 0 0
0.3125 0 0
0.3125 0 0
0.3125 0 0
0.3125 0 0
0.3125 0 0
0.3125 0 0
0.3125 0 0
0.3125 0 0
0.3125 0 0
0.3125 0 0
0.3125 0 0
0.3125 0 0
0.3125 0 0
0.3125 0 0
0.3125 0 0
0.3125 0 0
0.3125 0 0
0.3125 0 0
0.3125 0 0
